/*--------------------------------*- C++ -*----------------------------------*\
  =========                 |
  \\      /  F ield         | OpenFOAM: The Open Source CFD Toolbox
   \\    /   O peration     | Website:  https://openfoam.org
    \\  /    A nd           | Version:  8
     \\/     M anipulation  |
\*---------------------------------------------------------------------------*/
FoamFile
{
    version     2.0;
    format      ascii;
    class       volScalarField;
    location    "19000";
    object      C;
}
// * * * * * * * * * * * * * * * * * * * * * * * * * * * * * * * * * * * * * //

dimensions      [0 0 0 1 0 0 0];

internalField   uniform 0;

boundaryField
{
    inletOutlet
    {
        type            inletOutlet;
        inletValue      uniform 0;
        value           uniform 0;
    }
    Terrain
    {
        type            zeroGradient;
    }
    top
    {
        type            zeroGradient;
    }
    Buildings
    {
        type            zeroGradient;
    }
    Vegetation
    {
        type            zeroGradient;
    }
    Water
    {
        type            zeroGradient;
    }
}


// ************************************************************************* //
